Program Version,EnergyPlus, Version 8.4.0-09f5359d8a, YMD=2020.10.16 16:45
1,5,Environment Title[],Latitude[deg],Longitude[deg],Time Zone[],Elevation[m]
2,6,Day of Simulation[],Month[],Day of Month[],DST Indicator[1=yes 0=no],Hour[],StartMinute[],EndMinute[],DayType
3,3,Cumulative Day of Simulation[],Month[],Day of Month[],DST Indicator[1=yes 0=no],DayType  ! When Daily Report Variables Requested
4,2,Cumulative Days of Simulation[],Month[]  ! When Monthly Report Variables Requested
5,1,Cumulative Days of Simulation[] ! When Run Period Report Variables Requested
234,9,CONSTRUCTION IDEAL LOADS AIR,Zone Ideal Loads Zone Total Heating Energy [J] !Monthly  [Value,Min,Day,Hour,Minute,Max,Day,Hour,Minute]
235,9,CONSTRUCTION IDEAL LOADS AIR,Zone Ideal Loads Zone Total Cooling Energy [J] !Monthly  [Value,Min,Day,Hour,Minute,Max,Day,Hour,Minute]
End of Data Dictionary
1,ARCHSIM,  42.44, -76.25,  -5.00, 374.30
4,31, 1
234,96785891513.1711,17266545.1990775,10,19,60,46466842.7080967, 5, 6,60
235,680804851.883442,0.0, 7,16,45,776025.373605424,11, 4,60
4,59, 2
234,83445856315.0617,18124687.0043474,14,19,30,43118685.6578776,18, 9,15
235,574324427.138754,0.0, 8, 5,60,607874.813905494,28,24,60
4,90, 3
234,73562570573.4589,8494607.89777959,28,19,30,46731356.3645604, 7, 9,15
235,716543373.684173,0.0, 2,20,60,724929.756877532,15,13,60
4,120, 4
234,44690305144.2831,2329037.44009701,28,19,45,32123698.2037579, 2, 8,45
235,721762974.833247,0.0, 7,13,60,883563.676169922,19,24,60
4,151, 5
234,19655280135.2575,0.0, 9,16,45,22327895.0643058,17, 6,60
235,1158723077.31914,0.0, 1,13,30,3863585.82484081,13,20,60
4,181, 6
234,6431758646.86829,0.0, 1,16,45,10766174.2313375,15, 8,15
235,2643615879.8797,0.0, 2,10,30,6814884.60547279,17,20,45
4,212, 7
234,1347958220.38123,0.0, 1, 1,15,5771305.62164407,22, 8,15
235,6921180788.58153,0.0, 7,10,30,9370783.05928322,15,20,45
4,243, 8
234,4609399606.60784,0.0, 1, 1,15,9228264.64471461,27, 8,60
235,4066157109.64438,0.0, 1, 9,45,8474960.32051199, 4,20,45
4,273, 9
234,16055072233.6179,0.0, 1, 1,15,18183535.6982003,23, 8,60
235,1432975900.26148,0.0, 1, 9,45,5794336.99600266, 5,19,60
4,304,10
234,36645828491.7902,1232954.0842489, 1,19,30,27782527.8146039,20, 8,15
235,764056366.026888,0.0, 2,18,15,930167.086231631, 4,21,60
4,334,11
234,61433480558.0665,10601614.9263821,13,19,30,30110376.3753454,29, 9,45
235,660540711.599809,0.0, 3,12,15,630195.08597398,24, 1,60
4,365,12
234,89291234570.2929,16720270.3379099, 1,20,15,46922300.3395705,20,11,45
235,694864113.242361,0.0, 1, 5,60,639044.312202648, 2,13,60
End of Data
 Number of Records Written=          24
