Program Version,EnergyPlus, Version 8.4.0-09f5359d8a, YMD=2020.10.20 20:35
1,5,Environment Title[],Latitude[deg],Longitude[deg],Time Zone[],Elevation[m]
2,6,Day of Simulation[],Month[],Day of Month[],DST Indicator[1=yes 0=no],Hour[],StartMinute[],EndMinute[],DayType
3,3,Cumulative Day of Simulation[],Month[],Day of Month[],DST Indicator[1=yes 0=no],DayType  ! When Daily Report Variables Requested
4,2,Cumulative Days of Simulation[],Month[]  ! When Monthly Report Variables Requested
5,1,Cumulative Days of Simulation[] ! When Run Period Report Variables Requested
234,9,CONSTRUCTION IDEAL LOADS AIR,Zone Ideal Loads Zone Total Heating Energy [J] !Monthly  [Value,Min,Day,Hour,Minute,Max,Day,Hour,Minute]
235,9,CONSTRUCTION IDEAL LOADS AIR,Zone Ideal Loads Zone Total Cooling Energy [J] !Monthly  [Value,Min,Day,Hour,Minute,Max,Day,Hour,Minute]
End of Data Dictionary
1,ARCHSIM,  42.44, -76.25,  -5.00, 374.30
4,31, 1
234,37357546522.6901,376841.706865145,10,19,60,24608652.4649484, 5, 9,15
235,121225401.473328,0.0, 1, 1,30,418583.845759452,10,22,15
4,59, 2
234,30083010374.3765,1745542.3433237, 1, 1,15,21222254.3828044,18, 9,15
235,111845222.169105,0.0, 2,14,60,331165.927943928,28,24,60
4,90, 3
234,20319305033.7988,0.0,12,19,45,25682799.4455654, 7, 9,30
235,370760970.219869,0.0, 1,10,30,1246421.17162551,28,22,60
4,120, 4
234,3951592691.86871,0.0, 1, 1,15,10613912.044459, 3, 9,15
235,797685750.301178,0.0, 1, 8,15,1521055.76579042,19,19,60
4,151, 5
234,107083596.15171,0.0, 1, 1,15,815725.57681054,17, 8,30
235,1726522144.53132,0.0, 1,13,15,3288160.95275539,13,20,60
4,181, 6
234,75694549.6653677,0.0, 1, 1,15,726601.110593391,27,19,60
235,3011179636.26354,0.0, 1,11,60,6411836.26035974,17,20,45
4,212, 7
234,85519443.6413095,0.0, 1, 1,15,1270262.25589054, 4,18,60
235,7146340127.65486,0.0, 7,11,15,9366617.60908849,15,20,45
4,243, 8
234,172218738.822262,0.0, 1, 1,15,1330059.13731265,31,12,15
235,4428649873.88409,0.0, 8,12,15,8466314.79831397, 4,20,45
4,273, 9
234,131550806.754138,0.0, 1, 1,15,585674.964802494,19,18,60
235,2064151966.83589,0.0, 4,11,45,5569970.2073678, 5,19,60
4,304,10
234,1439403680.72347,0.0, 1, 1,15,7628690.1134228,20, 8,15
235,878994983.205043,0.0, 2,13,45,1323831.27069735, 2, 1,60
4,334,11
234,10871205557.4499,0.0, 2,18,60,11354677.1098216,29, 9,45
235,286959763.425698,0.0, 1,18,45,1386822.80281704,12,23,30
4,365,12
234,29831972315.2276,0.0, 2, 7,15,23200823.0200535,17, 9,30
235,143271803.602848,0.0, 1, 5,15,423893.539750349, 2, 7,45
End of Data
 Number of Records Written=          24
