Program Version,EnergyPlus, Version 8.4.0-09f5359d8a, YMD=2020.10.16 16:45
1,5,Environment Title[],Latitude[deg],Longitude[deg],Time Zone[],Elevation[m]
2,6,Day of Simulation[],Month[],Day of Month[],DST Indicator[1=yes 0=no],Hour[],StartMinute[],EndMinute[],DayType
3,3,Cumulative Day of Simulation[],Month[],Day of Month[],DST Indicator[1=yes 0=no],DayType  ! When Daily Report Variables Requested
4,2,Cumulative Days of Simulation[],Month[]  ! When Monthly Report Variables Requested
5,1,Cumulative Days of Simulation[] ! When Run Period Report Variables Requested
234,9,CONSTRUCTION IDEAL LOADS AIR,Zone Ideal Loads Zone Total Heating Energy [J] !Monthly  [Value,Min,Day,Hour,Minute,Max,Day,Hour,Minute]
235,9,CONSTRUCTION IDEAL LOADS AIR,Zone Ideal Loads Zone Total Cooling Energy [J] !Monthly  [Value,Min,Day,Hour,Minute,Max,Day,Hour,Minute]
End of Data Dictionary
1,ARCHSIM,  42.44, -76.25,  -5.00, 374.30
4,31, 1
234,96819719309.3712,17248142.6549994,10,20,30,46628922.1977641, 5, 6,60
235,680018652.855025,0.0, 7,16,45,774565.089555929,11, 4,60
4,59, 2
234,83430594506.158,18318024.5406473,14,19,30,43240298.45474,18, 6,60
235,573579253.666608,0.0, 8, 5,60,607767.897545084,28,24,60
4,90, 3
234,73605273810.6268,8691746.40618072,28,19,15,46939100.6574553, 7, 6,60
235,714653769.125317,0.0, 2,20,60,721452.214606193,15,13,60
4,120, 4
234,44655839338.4033,2531249.12736793,28,19,60,32207483.1732997, 2, 8,60
235,720237942.662108,0.0, 7,13,60,878916.912872986,19,24,60
4,151, 5
234,19416696692.8407,0.0, 9,16,30,22309127.3890625,17, 5,60
235,1181008341.39125,0.0, 1,13,30,3784117.8919234,13,20,60
4,181, 6
234,6157390265.11291,0.0, 1,16,60,10605421.074691,15, 5,60
235,2719658574.06169,0.0, 2,10,30,6594461.08866517,17,20,60
4,212, 7
234,1204726873.8217,0.0, 1, 1,15,5551021.26483311,22, 8,45
235,7147631723.49748,0.0, 7,10,30,9183567.01906104,15,20,60
4,243, 8
234,4372672032.70588,0.0, 1, 1,15,9314615.05125571,27, 9,30
235,4201189556.35757,0.0, 1, 9,45,8319279.00812831, 4,20,60
4,273, 9
234,15937559643.7009,0.0, 1, 1,15,18204515.2677639,23, 9,15
235,1475976218.06844,0.0, 1, 9,45,5582118.35309103, 5,19,60
4,304,10
234,36401724287.1512,1272636.58341494, 1,19,45,27809133.688047,20, 5,60
235,760025887.276386,0.0, 2,18,15,923196.474003251, 4,21,60
4,334,11
234,61369366582.1572,10675639.998171,13,19,45,30110422.0969166,28, 6,60
235,658819853.166311,0.0, 3,12,15,629351.255431064,24, 1,60
4,365,12
234,89297515463.4587,16743929.3314416, 1,20,60,47110322.9280038,20,11,45
235,693916002.045668,0.0, 1, 5,45,638508.816986932, 2,13,60
End of Data
 Number of Records Written=          24
