Program Version,EnergyPlus, Version 8.4.0-09f5359d8a, YMD=2020.10.20 20:35
1,5,Environment Title[],Latitude[deg],Longitude[deg],Time Zone[],Elevation[m]
2,6,Day of Simulation[],Month[],Day of Month[],DST Indicator[1=yes 0=no],Hour[],StartMinute[],EndMinute[],DayType
3,3,Cumulative Day of Simulation[],Month[],Day of Month[],DST Indicator[1=yes 0=no],DayType  ! When Daily Report Variables Requested
4,2,Cumulative Days of Simulation[],Month[]  ! When Monthly Report Variables Requested
5,1,Cumulative Days of Simulation[] ! When Run Period Report Variables Requested
234,9,CONSTRUCTION IDEAL LOADS AIR,Zone Ideal Loads Zone Total Heating Energy [J] !Monthly  [Value,Min,Day,Hour,Minute,Max,Day,Hour,Minute]
235,9,CONSTRUCTION IDEAL LOADS AIR,Zone Ideal Loads Zone Total Cooling Energy [J] !Monthly  [Value,Min,Day,Hour,Minute,Max,Day,Hour,Minute]
End of Data Dictionary
1,ARCHSIM,  42.44, -76.25,  -5.00, 374.30
4,31, 1
234,69686480086.1094,9114536.69202267,10,19,60,36632151.7983378, 5, 9,15
235,345538012.689062,0.0, 1, 1,60,581704.386679262,10,24,60
4,59, 2
234,59055679606.7146,10378431.3154194,14,19,30,33278487.8407245,18, 9,15
235,313253262.496887,0.0, 3,17,45,473781.330556961,28,24,60
4,90, 3
234,48142608569.3409,1790412.08269401,28,19,30,37315566.2070061, 7, 9,15
235,392258566.028618,0.0, 1,16,60,527859.531085061, 1, 1,60
4,120, 4
234,22004635251.9975,0.0, 8,19,45,22357408.2113479, 2, 8,60
235,415317007.462341,0.0, 5,14,60,1566366.69617328,19,19,60
4,151, 5
234,5313719430.44046,0.0, 1,17,30,12125151.6858132,17, 8,15
235,1270201948.63874,0.0, 1, 8,60,3297949.17149585,13,20,60
4,181, 6
234,235327230.811055,0.0, 1, 1,15,3078633.07904389,15, 8,15
235,2950973387.28146,0.0, 1,11,60,6438151.22556034,17,20,45
4,212, 7
234,85519443.6413141,0.0, 1, 1,15,1270262.25589135, 4,18,60
235,7146340127.65744,0.0, 7,11,15,9366617.60908895,15,20,45
4,243, 8
234,235890790.412249,0.0, 1, 1,15,1745726.68552791,27, 9,60
235,4379821752.97632,0.0, 8,12,15,8466314.79831454, 4,20,45
4,273, 9
234,3508934866.8233,0.0, 1, 1,15,9372327.01811923,23, 8,60
235,1670817940.5174,0.0, 4,11,45,5569971.49945089, 5,19,60
4,304,10
234,15483094202.344,0.0, 1, 1,15,18650260.5655078,20, 8,15
235,526867215.809283,0.0, 2,13,60,1324041.67199666, 2, 1,60
4,334,11
234,37475906415.1974,3747273.58483276,13,19,45,21578707.2976544,29, 9,45
235,361968227.65225,0.0, 2,12,15,462397.72438937,13,19,60
4,365,12
234,62016894247.729,8469298.52561912, 1,20,60,35869276.2892438,20,11,60
235,367874061.089316,0.0, 1, 6,30,511481.888988789, 2, 6,60
End of Data
 Number of Records Written=          24
